                              Psi4 0.1.81 Driver

  ==> Input File <==

--------------------------------------------------------------------------

# PYTHONPATH must include directory above plugin directory.
#     Define either externally or here, then import plugin.
sys.path.insert(0, './..')
import scf

molecule {
0 1
H
F 1 1.2
symmetry c1
units angstrom
}

set {
  basis cc-pvdz
  reference rhf
  scf_type  pk
}

set scf {
  print 1
  DO_FTHF true
  MAX_ITER 130
  MAX_TEMP 20000
  TEMP_INCREMENT 0
  bisect  true
  bisect_iter  40
}
energy('rhf')
energy('scf')

scf.exampleFN()

--------------------------------------------------------------------------

    Molecular point group: c1
  Charge       = 0
  Multiplicity = 1
  Basis Set: CC-PVDZ
  Basis Set:
  @RHF Final Energy:   -99.95952603844658
    Total Energy =                        -99.9595260384465973
    Molecular point group: c1
  Charge       = 0
  Multiplicity = 1
  Basis Set: CC-PVDZ
  Basis Set:

    Orbital Energies (a.u.)
    -----------------------

    Doubly Occupied:

       1A    -26.280438     2A     -1.515960     3A     -0.645475
       4A     -0.607088     5A     -0.607088

  @RHF Final Energy:   -99.95952603847640

   => Energetics <=

    Nuclear Repulsion Energy =              3.9688290644250008
    One-Electron Energy =                -148.5446120077409375
    Two-Electron Energy =                  44.6162569048395312
    DFT Exchange-Correlation Energy =       0.0000000000000000
    Empirical Dispersion Energy =           0.0000000000000000
    PCM Polarization Energy =               0.0000000000000000
    EFP Energy =                            0.0000000000000000
    Total Energy =                        -99.9595260384764117
    Molecular point group: c1

    Geometry (in Angstrom), charge = 0, multiplicity = 1:

       Center              X                  Y                   Z
    ------------   -----------------  -----------------  -----------------
           H          0.000000000000     0.000000000000    -1.139549323191
           F          0.000000000000     0.000000000000     0.060450676809
